nqpoint: 51     
npath: 1      
segment_nqpoint:
- 51
reciprocal_lattice:
- [   0.32404067,   0.18708497,   0.00000000 ] # a*
- [   0.00000000,   0.37416993,   0.00000000 ] # b*
- [   0.00000000,   0.00000000,   0.28375405 ] # c*
natom: 3      
lattice:
- [     3.086032390600000,     0.000000000000000,     0.000000000000000 ] # a
- [    -1.543016195300000,     2.672582447200000,     0.000000000000000 ] # b
- [     0.000000000000000,     0.000000000000000,     3.524178743400000 ] # c
points:
- symbol: B  # 1
  coordinates: [  0.333333330000000,  0.666666670000000,  0.500000000000000 ]
  mass: 10.811000
- symbol: B  # 2
  coordinates: [  0.666666670000000,  0.333333330000000,  0.500000000000000 ]
  mass: 10.811000
- symbol: Mg # 3
  coordinates: [  0.000000000000000,  0.000000000000000,  0.000000000000000 ]
  mass: 24.305000

phonon:
- q-position: [    0.0000000,    0.0000000,    0.0000000 ]
  distance:    0.0000000
  band:
  - # 1
    frequency:   -0.1645847448
    eigenvector:
    - # atom 1
      - [ -0.00000000000024,  0.00000000000000 ]
      - [  0.00000000000069,  0.00000000000000 ]
      - [  0.47793147778065,  0.00000000000000 ]
    - # atom 2
      - [ -0.00000000000024,  0.00000000000000 ]
      - [  0.00000000000069,  0.00000000000000 ]
      - [  0.47793147778065,  0.00000000000000 ]
    - # atom 3
      - [ -0.00000000000035,  0.00000000000000 ]
      - [  0.00000000000102,  0.00000000000000 ]
      - [  0.73699593288756,  0.00000000000000 ]
  - # 2
    frequency:   -0.0798716197
    eigenvector:
    - # atom 1
      - [  0.05361942804181,  0.00000000000000 ]
      - [ -0.48631774374425,  0.00000000000000 ]
      - [  0.00000000000070,  0.00000000000000 ]
    - # atom 2
      - [  0.05361942804181,  0.00000000000000 ]
      - [ -0.48631774374425,  0.00000000000000 ]
      - [  0.00000000000070,  0.00000000000000 ]
    - # atom 3
      - [  0.07912197685847,  0.00000000000000 ]
      - [ -0.71762088242326,  0.00000000000000 ]
      - [  0.00000000000108,  0.00000000000000 ]
  - # 3
    frequency:   -0.0798716197
    eigenvector:
    - # atom 1
      - [  0.48631774374426,  0.00000000000000 ]
      - [  0.05361942804181,  0.00000000000000 ]
      - [  0.00000000000016,  0.00000000000000 ]
    - # atom 2
      - [  0.48631774374426,  0.00000000000000 ]
      - [  0.05361942804181,  0.00000000000000 ]
      - [  0.00000000000016,  0.00000000000000 ]
    - # atom 3
      - [  0.71762088242326,  0.00000000000000 ]
      - [  0.07912197685847,  0.00000000000000 ]
      - [  0.00000000000024,  0.00000000000000 ]
  - # 4
    frequency:   10.0092318762
    eigenvector:
    - # atom 1
      - [  0.50556120269967,  0.00000000000000 ]
      - [ -0.07090754107165,  0.00000000000000 ]
      - [  0.00000000000000,  0.00000000000000 ]
    - # atom 2
      - [  0.50556120269967,  0.00000000000000 ]
      - [ -0.07090754107165,  0.00000000000000 ]
      - [  0.00000000000000,  0.00000000000000 ]
    - # atom 3
      - [ -0.68521802930624,  0.00000000000000 ]
      - [  0.09610532868546,  0.00000000000000 ]
      - [ -0.00000000000000,  0.00000000000000 ]
  - # 5
    frequency:   10.0092318762
    eigenvector:
    - # atom 1
      - [  0.07090754107165,  0.00000000000000 ]
      - [  0.50556120269967,  0.00000000000000 ]
      - [ -0.00000000000000,  0.00000000000000 ]
    - # atom 2
      - [  0.07090754107165,  0.00000000000000 ]
      - [  0.50556120269967,  0.00000000000000 ]
      - [ -0.00000000000000,  0.00000000000000 ]
    - # atom 3
      - [ -0.09610532868546,  0.00000000000000 ]
      - [ -0.68521802930624,  0.00000000000000 ]
      - [  0.00000000000000,  0.00000000000000 ]
  - # 6
    frequency:   11.7630512306
    eigenvector:
    - # atom 1
      - [ -0.00000000000000,  0.00000000000000 ]
      - [ -0.00000000000000,  0.00000000000000 ]
      - [  0.52113482185170,  0.00000000000000 ]
    - # atom 2
      - [ -0.00000000000000,  0.00000000000000 ]
      - [  0.00000000000000,  0.00000000000000 ]
      - [  0.52113482185170,  0.00000000000000 ]
    - # atom 3
      - [  0.00000000000000,  0.00000000000000 ]
      - [ -0.00000000000000,  0.00000000000000 ]
      - [ -0.67589717776242,  0.00000000000000 ]
  - # 7
    frequency:   16.5195693991
    eigenvector:
    - # atom 1
      - [  0.11702277550395,  0.00000000000000 ]
      - [  0.69735620024013,  0.00000000000000 ]
      - [ -0.00000000000000,  0.00000000000000 ]
    - # atom 2
      - [ -0.11702277550395,  0.00000000000000 ]
      - [ -0.69735620024013,  0.00000000000000 ]
      - [  0.00000000000000,  0.00000000000000 ]
    - # atom 3
      - [ -0.00000000000000,  0.00000000000000 ]
      - [ -0.00000000000000,  0.00000000000000 ]
      - [ -0.00000000000000,  0.00000000000000 ]
  - # 8
    frequency:   16.5195693991
    eigenvector:
    - # atom 1
      - [  0.69735620024013, -0.00000000000000 ]
      - [ -0.11702277550395,  0.00000000000000 ]
      - [ -0.00000000000000,  0.00000000000000 ]
    - # atom 2
      - [ -0.69735620024013,  0.00000000000000 ]
      - [  0.11702277550395,  0.00000000000000 ]
      - [ -0.00000000000000,  0.00000000000000 ]
    - # atom 3
      - [  0.00000000000000,  0.00000000000000 ]
      - [  0.00000000000000,  0.00000000000000 ]
      - [  0.00000000000000,  0.00000000000000 ]
  - # 9
    frequency:   20.5755254502
    eigenvector:
    - # atom 1
      - [ -0.00000000000000,  0.00000000000000 ]
      - [ -0.00000000000000,  0.00000000000000 ]
      - [ -0.70710678118655,  0.00000000000000 ]
    - # atom 2
      - [  0.00000000000000,  0.00000000000000 ]
      - [  0.00000000000000,  0.00000000000000 ]
      - [  0.70710678118655,  0.00000000000000 ]
    - # atom 3
      - [ -0.00000000000000,  0.00000000000000 ]
      - [ -0.00000000000000,  0.00000000000000 ]
      - [  0.00000000000000,  0.00000000000000 ]

- q-position: [    0.0100000,    0.0100000,    0.0100000 ]
  distance:    0.0070748
  band:
  - # 1
    frequency:    0.3917656381
    eigenvector:
    - # atom 1
      - [  0.02140568127613, -0.00000000000000 ]
      - [  0.48840600830049,  0.00000000000000 ]
      - [  0.00000000000053,  0.00000000000000 ]
    - # atom 2
      - [  0.02140568127613,  0.00000000000000 ]
      - [  0.48840600830049,  0.00000000000000 ]
      - [  0.00000000000053,  0.00000000000000 ]
    - # atom 3
      - [  0.03163499254802,  0.00000000000000 ]
      - [  0.72180465707604,  0.00000000000000 ]
      - [  0.00000000000082,  0.00000000000000 ]
  - # 2
    frequency:    0.3917656381
    eigenvector:
    - # atom 1
      - [ -0.48840600830049,  0.00000000000000 ]
      - [  0.02140568127613,  0.00000000000000 ]
      - [ -0.00000000000004,  0.00000000000000 ]
    - # atom 2
      - [ -0.48840600830049,  0.00000000000000 ]
      - [  0.02140568127613,  0.00000000000000 ]
      - [ -0.00000000000004,  0.00000000000000 ]
    - # atom 3
      - [ -0.72180465707604,  0.00000000000000 ]
      - [  0.03163499254802,  0.00000000000000 ]
      - [ -0.00000000000007,  0.00000000000000 ]
  - # 3
    frequency:    0.4490324603
    eigenvector:
    - # atom 1
      - [  0.00000000000007,  0.00000000000000 ]
      - [  0.00000000000054,  0.00000000000000 ]
      - [ -0.47746037143003,  0.00000000000000 ]
    - # atom 2
      - [  0.00000000000007,  0.00000000000000 ]
      - [  0.00000000000054,  0.00000000000000 ]
      - [ -0.47746037143003,  0.00000000000000 ]
    - # atom 3
      - [  0.00000000000010,  0.00000000000000 ]
      - [  0.00000000000080,  0.00000000000000 ]
      - [ -0.73760639058226,  0.00000000000000 ]
  - # 4
    frequency:   10.0084971960
    eigenvector:
    - # atom 1
      - [  0.51008689093137,  0.00000000000000 ]
      - [ -0.02850844725787,  0.00000000000000 ]
      - [ -0.00000000000000,  0.00000000000000 ]
    - # atom 2
      - [  0.51008689093137,  0.00000000000000 ]
      - [ -0.02850844725787,  0.00000000000000 ]
      - [  0.00000000000000,  0.00000000000000 ]
    - # atom 3
      - [ -0.69029618981789,  0.00000000000000 ]
      - [  0.03858023577865,  0.00000000000000 ]
      - [  0.00000000000000,  0.00000000000000 ]
  - # 5
    frequency:   10.0084971960
    eigenvector:
    - # atom 1
      - [  0.02850844725787,  0.00000000000000 ]
      - [  0.51008689093137,  0.00000000000000 ]
      - [ -0.00000000000000,  0.00000000000000 ]
    - # atom 2
      - [  0.02850844725787,  0.00000000000000 ]
      - [  0.51008689093137,  0.00000000000000 ]
      - [ -0.00000000000000,  0.00000000000000 ]
    - # atom 3
      - [ -0.03858023577865,  0.00000000000000 ]
      - [ -0.69029618981789,  0.00000000000000 ]
      - [  0.00000000000000,  0.00000000000000 ]
  - # 6
    frequency:   11.7630647346
    eigenvector:
    - # atom 1
      - [ -0.00000000000000,  0.00000000000000 ]
      - [ -0.00000000000000,  0.00000000000000 ]
      - [ -0.52156648062725,  0.00000000000000 ]
    - # atom 2
      - [  0.00000000000000,  0.00000000000000 ]
      - [ -0.00000000000000,  0.00000000000000 ]
      - [ -0.52156648062725,  0.00000000000000 ]
    - # atom 3
      - [  0.00000000000000,  0.00000000000000 ]
      - [  0.00000000000000,  0.00000000000000 ]
      - [  0.67523093277205,  0.00000000000000 ]
  - # 7
    frequency:   16.5151754448
    eigenvector:
    - # atom 1
      - [  0.03720138399314,  0.00000000000000 ]
      - [ -0.70612750762805,  0.00000000000000 ]
      - [  0.00000000000000,  0.00000000000000 ]
    - # atom 2
      - [ -0.03720138399314,  0.00000000000000 ]
      - [  0.70612750762805,  0.00000000000000 ]
      - [  0.00000000000000,  0.00000000000000 ]
    - # atom 3
      - [  0.00000000000000,  0.00000000000000 ]
      - [ -0.00000000000000,  0.00000000000000 ]
      - [ -0.00000000000000,  0.00000000000000 ]
  - # 8
    frequency:   16.5151754448
    eigenvector:
    - # atom 1
      - [  0.70612750762805, -0.00000000000000 ]
      - [  0.03720138399314,  0.00000000000000 ]
      - [ -0.00000000000000,  0.00000000000000 ]
    - # atom 2
      - [ -0.70612750762805,  0.00000000000000 ]
      - [ -0.03720138399314,  0.00000000000000 ]
      - [ -0.00000000000000,  0.00000000000000 ]
    - # atom 3
      - [ -0.00000000000000,  0.00000000000000 ]
      - [  0.00000000000000,  0.00000000000000 ]
      - [  0.00000000000000,  0.00000000000000 ]
  - # 9
    frequency:   20.5699589588
    eigenvector:
    - # atom 1
      - [ -0.00000000000000,  0.00000000000000 ]
      - [ -0.00000000000000,  0.00000000000000 ]
      - [ -0.70710678118655,  0.00000000000000 ]
    - # atom 2
      - [ -0.00000000000000,  0.00000000000000 ]
      - [  0.00000000000000,  0.00000000000000 ]
      - [  0.70710678118655,  0.00000000000000 ]
    - # atom 3
      - [  0.00000000000000,  0.00000000000000 ]
      - [  0.00000000000000,  0.00000000000000 ]
      - [ -0.00000000000000,  0.00000000000000 ]

- q-position: [    0.0200000,    0.0200000,    0.0200000 ]
  distance:    0.0141496
  band:
  - # 1
    frequency:    0.7946131882
    eigenvector:
    - # atom 1
      - [  0.48653016367368,  0.00000000000000 ]
      - [ -0.03371496017858, -0.00000000000000 ]
      - [  0.00000000000000, -0.00000000000000 ]
    - # atom 2
      - [  0.48653016367368,  0.00000000000000 ]
      - [ -0.03371496017858, -0.00000000000000 ]
      - [  0.00000000000000, -0.00000000000000 ]
    - # atom 3
      - [  0.72235566668509, -0.00000000000000 ]
      - [ -0.05005690161770,  0.00000000000000 ]
      - [  0.00000000000001, -0.00000000000000 ]
  - # 2
    frequency:    0.7946131882
    eigenvector:
    - # atom 1
      - [  0.03371496017858,  0.00000000000000 ]
      - [  0.48653016367368,  0.00000000000000 ]
      - [ -0.00000000000003,  0.00000000000000 ]
    - # atom 2
      - [  0.03371496017858, -0.00000000000000 ]
      - [  0.48653016367368,  0.00000000000000 ]
      - [ -0.00000000000003,  0.00000000000000 ]
    - # atom 3
      - [  0.05005690161770, -0.00000000000000 ]
      - [  0.72235566668510, -0.00000000000000 ]
      - [ -0.00000000000005, -0.00000000000000 ]
  - # 3
    frequency:    0.9407916781
    eigenvector:
    - # atom 1
      - [  0.00000000000000,  0.00000000000000 ]
      - [ -0.00000000000003,  0.00000000000000 ]
      - [ -0.47603735895014,  0.00000000000000 ]
    - # atom 2
      - [  0.00000000000000, -0.00000000000000 ]
      - [ -0.00000000000003,  0.00000000000000 ]
      - [ -0.47603735895014,  0.00000000000000 ]
    - # atom 3
      - [  0.00000000000000, -0.00000000000000 ]
      - [ -0.00000000000005,  0.00000000000000 ]
      - [ -0.73944361905933,  0.00000000000000 ]
  - # 4
    frequency:   10.0063466332
    eigenvector:
    - # atom 1
      - [  0.05970190538669,  0.00000000000000 ]
      - [  0.50851488059743, -0.00000000000000 ]
      - [  0.00000000000000,  0.00000000000000 ]
    - # atom 2
      - [  0.05970190538669,  0.00000000000000 ]
      - [  0.50851488059743, -0.00000000000000 ]
      - [ -0.00000000000000,  0.00000000000000 ]
    - # atom 3
      - [ -0.08042237124743,  0.00000000000000 ]
      - [ -0.68500280263026,  0.00000000000000 ]
      - [ -0.00000000000000, -0.00000000000000 ]
  - # 5
    frequency:   10.0063466332
    eigenvector:
    - # atom 1
      - [  0.50851488059743,  0.00000000000000 ]
      - [ -0.05970190538669,  0.00000000000000 ]
      - [ -0.00000000000000,  0.00000000000000 ]
    - # atom 2
      - [  0.50851488059743, -0.00000000000000 ]
      - [ -0.05970190538669,  0.00000000000000 ]
      - [  0.00000000000000, -0.00000000000000 ]
    - # atom 3
      - [ -0.68500280263026,  0.00000000000000 ]
      - [  0.08042237124743, -0.00000000000000 ]
      - [  0.00000000000000, -0.00000000000000 ]
  - # 6
    frequency:   11.7631814223
    eigenvector:
    - # atom 1
      - [ -0.00000000000000,  0.00000000000000 ]
      - [  0.00000000000000, -0.00000000000000 ]
      - [ -0.52286559734197,  0.00000000000000 ]
    - # atom 2
      - [ -0.00000000000000,  0.00000000000000 ]
      - [ -0.00000000000000,  0.00000000000000 ]
      - [ -0.52286559734197,  0.00000000000000 ]
    - # atom 3
      - [  0.00000000000000,  0.00000000000000 ]
      - [ -0.00000000000000,  0.00000000000000 ]
      - [  0.67321848922355, -0.00000000000000 ]
  - # 7
    frequency:   16.5020039191
    eigenvector:
    - # atom 1
      - [  0.03110774237552,  0.00000000000000 ]
      - [  0.70642218847110,  0.00000000000000 ]
      - [  0.00000000000000,  0.00000000000000 ]
    - # atom 2
      - [ -0.03110774237552, -0.00000000000000 ]
      - [ -0.70642218847110, -0.00000000000000 ]
      - [ -0.00000000000000, -0.00000000000000 ]
    - # atom 3
      - [ -0.00000000000000,  0.00000000000000 ]
      - [ -0.00000000000000, -0.00000000000000 ]
      - [ -0.00000000000000, -0.00000000000000 ]
  - # 8
    frequency:   16.5020039191
    eigenvector:
    - # atom 1
      - [  0.70642218847110, -0.00000000000000 ]
      - [ -0.03110774237552, -0.00000000000000 ]
      - [ -0.00000000000000,  0.00000000000000 ]
    - # atom 2
      - [ -0.70642218847110,  0.00000000000000 ]
      - [  0.03110774237552,  0.00000000000000 ]
      - [  0.00000000000000,  0.00000000000000 ]
    - # atom 3
      - [ -0.00000000000000,  0.00000000000000 ]
      - [  0.00000000000000,  0.00000000000000 ]
      - [  0.00000000000000, -0.00000000000000 ]
  - # 9
    frequency:   20.5532724283
    eigenvector:
    - # atom 1
      - [ -0.00000000000000,  0.00000000000000 ]
      - [  0.00000000000000,  0.00000000000000 ]
      - [ -0.70710678118655,  0.00000000000000 ]
    - # atom 2
      - [  0.00000000000000,  0.00000000000000 ]
      - [ -0.00000000000000, -0.00000000000000 ]
      - [  0.70710678118655, -0.00000000000000 ]
    - # atom 3
      - [  0.00000000000000, -0.00000000000000 ]
      - [ -0.00000000000000,  0.00000000000000 ]
      - [ -0.00000000000000, -0.00000000000000 ]

- q-position: [    0.0300000,    0.0300000,    0.0300000 ]
  distance:    0.0212244
  band:
  - # 1
    frequency:    1.1926633576
    eigenvector:
    - # atom 1
      - [ -0.48502111193207,  0.00000000000000 ]
      - [ -0.02578233499124,  0.00000000000000 ]
      - [ -0.00000000000000,  0.00000000000000 ]
    - # atom 2
      - [ -0.48502111193207, -0.00000000000000 ]
      - [ -0.02578233499124,  0.00000000000000 ]
      - [ -0.00000000000000,  0.00000000000000 ]
    - # atom 3
      - [ -0.72573502219479,  0.00000000000000 ]
      - [ -0.03857799794027,  0.00000000000000 ]
      - [ -0.00000000000000, -0.00000000000000 ]
  - # 2
    frequency:    1.1926633576
    eigenvector:
    - # atom 1
      - [ -0.02578233499124,  0.00000000000000 ]
      - [  0.48502111193207, -0.00000000000000 ]
      - [ -0.00000000000007,  0.00000000000000 ]
    - # atom 2
      - [ -0.02578233499124, -0.00000000000000 ]
      - [  0.48502111193207, -0.00000000000000 ]
      - [ -0.00000000000007,  0.00000000000000 ]
    - # atom 3
      - [ -0.03857799794027,  0.00000000000000 ]
      - [  0.72573502219479, -0.00000000000000 ]
      - [ -0.00000000000011,  0.00000000000000 ]
  - # 3
    frequency:    1.4195674110
    eigenvector:
    - # atom 1
      - [ -0.00000000000001,  0.00000000000000 ]
      - [  0.00000000000007, -0.00000000000000 ]
      - [  0.47363320072953, -0.00000000000000 ]
    - # atom 2
      - [ -0.00000000000001,  0.00000000000000 ]
      - [  0.00000000000007, -0.00000000000000 ]
      - [  0.47363320072953, -0.00000000000000 ]
    - # atom 3
      - [ -0.00000000000001,  0.00000000000000 ]
      - [  0.00000000000011, -0.00000000000000 ]
      - [  0.74252486984168, -0.00000000000000 ]
  - # 4
    frequency:   10.0029416160
    eigenvector:
    - # atom 1
      - [  0.12988044935866,  0.00000000000000 ]
      - [  0.49721309421310,  0.00000000000000 ]
      - [ -0.00000000000000,  0.00000000000000 ]
    - # atom 2
      - [  0.12988044935866,  0.00000000000000 ]
      - [  0.49721309421310,  0.00000000000000 ]
      - [ -0.00000000000000,  0.00000000000000 ]
    - # atom 3
      - [ -0.17360264570301,  0.00000000000000 ]
      - [ -0.66459200795658, -0.00000000000000 ]
      - [  0.00000000000000,  0.00000000000000 ]
  - # 5
    frequency:   10.0029416160
    eigenvector:
    - # atom 1
      - [  0.49721309421310,  0.00000000000000 ]
      - [ -0.12988044935866, -0.00000000000000 ]
      - [ -0.00000000000000, -0.00000000000000 ]
    - # atom 2
      - [  0.49721309421310, -0.00000000000000 ]
      - [ -0.12988044935866, -0.00000000000000 ]
      - [ -0.00000000000000,  0.00000000000000 ]
    - # atom 3
      - [ -0.66459200795658,  0.00000000000000 ]
      - [  0.17360264570301,  0.00000000000000 ]
      - [  0.00000000000000, -0.00000000000000 ]
  - # 6
    frequency:   11.7636311789
    eigenvector:
    - # atom 1
      - [ -0.00000000000000,  0.00000000000000 ]
      - [ -0.00000000000000, -0.00000000000000 ]
      - [ -0.52504437066471,  0.00000000000000 ]
    - # atom 2
      - [ -0.00000000000000,  0.00000000000000 ]
      - [ -0.00000000000000, -0.00000000000000 ]
      - [ -0.52504437066471,  0.00000000000000 ]
    - # atom 3
      - [  0.00000000000000,  0.00000000000000 ]
      - [  0.00000000000000,  0.00000000000000 ]
      - [  0.66981849606188,  0.00000000000000 ]
  - # 7
    frequency:   16.4800858478
    eigenvector:
    - # atom 1
      - [  0.70339654788520, -0.00000000000000 ]
      - [ -0.07234152627076,  0.00000000000000 ]
      - [ -0.00000000000000,  0.00000000000000 ]
    - # atom 2
      - [ -0.70339654788520,  0.00000000000000 ]
      - [  0.07234152627076, -0.00000000000000 ]
      - [ -0.00000000000000,  0.00000000000000 ]
    - # atom 3
      - [ -0.00000000000000,  0.00000000000000 ]
      - [ -0.00000000000000,  0.00000000000000 ]
      - [  0.00000000000000, -0.00000000000000 ]
  - # 8
    frequency:   16.4800858478
    eigenvector:
    - # atom 1
      - [ -0.07234152627076,  0.00000000000000 ]
      - [ -0.70339654788520,  0.00000000000000 ]
      - [ -0.00000000000000, -0.00000000000000 ]
    - # atom 2
      - [  0.07234152627076,  0.00000000000000 ]
      - [  0.70339654788520, -0.00000000000000 ]
      - [  0.00000000000000, -0.00000000000000 ]
    - # atom 3
      - [  0.00000000000000, -0.00000000000000 ]
      - [ -0.00000000000000,  0.00000000000000 ]
      - [  0.00000000000000,  0.00000000000000 ]
  - # 9
    frequency:   20.5255047080
    eigenvector:
    - # atom 1
      - [ -0.00000000000000,  0.00000000000000 ]
      - [  0.00000000000000, -0.00000000000000 ]
      - [ -0.70710678118655,  0.00000000000000 ]
    - # atom 2
      - [ -0.00000000000000,  0.00000000000000 ]
      - [ -0.00000000000000, -0.00000000000000 ]
      - [  0.70710678118655, -0.00000000000000 ]
    - # atom 3
      - [  0.00000000000000, -0.00000000000000 ]
      - [  0.00000000000000,  0.00000000000000 ]
      - [  0.00000000000000, -0.00000000000000 ]

- q-position: [    0.0400000,    0.0400000,    0.0400000 ]
  distance:    0.0282991
  band:
  - # 1
    frequency:    1.5869034621
    eigenvector:
    - # atom 1
      - [  0.05261909445010, -0.00000000000000 ]
      - [  0.47998362183193,  0.00000000000000 ]
      - [  0.00000000000000,  0.00000000000000 ]
    - # atom 2
      - [  0.05261909445010,  0.00000000000000 ]
      - [  0.47998362183193,  0.00000000000000 ]
      - [  0.00000000000000,  0.00000000000000 ]
    - # atom 3
      - [  0.07961024219503,  0.00000000000000 ]
      - [  0.72619289220038,  0.00000000000000 ]
      - [  0.00000000000000,  0.00000000000000 ]
  - # 2
    frequency:    1.5869034621
    eigenvector:
    - # atom 1
      - [ -0.47998362183193,  0.00000000000000 ]
      - [  0.05261909445010,  0.00000000000000 ]
      - [  0.00000000000000, -0.00000000000000 ]
    - # atom 2
      - [ -0.47998362183193, -0.00000000000000 ]
      - [  0.05261909445010,  0.00000000000000 ]
      - [  0.00000000000000, -0.00000000000000 ]
    - # atom 3
      - [ -0.72619289220038, -0.00000000000000 ]
      - [  0.07961024219503,  0.00000000000000 ]
      - [  0.00000000000000, -0.00000000000000 ]
  - # 3
    frequency:    1.8916276426
    eigenvector:
    - # atom 1
      - [ -0.00000000000000,  0.00000000000000 ]
      - [  0.00000000000000, -0.00000000000000 ]
      - [ -0.47019866676002,  0.00000000000000 ]
    - # atom 2
      - [ -0.00000000000000,  0.00000000000000 ]
      - [  0.00000000000000, -0.00000000000000 ]
      - [ -0.47019866676002,  0.00000000000000 ]
    - # atom 3
      - [ -0.00000000000000, -0.00000000000000 ]
      - [  0.00000000000000, -0.00000000000000 ]
      - [ -0.74687778622356,  0.00000000000000 ]
  - # 4
    frequency:    9.9985545081
    eigenvector:
    - # atom 1
      - [ -0.00523386096221,  0.00000000000000 ]
      - [  0.51654579697427,  0.00000000000000 ]
      - [  0.00000000000000, -0.00000000000000 ]
    - # atom 2
      - [ -0.00523386096221, -0.00000000000000 ]
      - [  0.51654579697427,  0.00000000000000 ]
      - [ -0.00000000000000, -0.00000000000000 ]
    - # atom 3
      - [  0.00691873348745,  0.00000000000000 ]
      - [ -0.68283103604202, -0.00000000000000 ]
      - [  0.00000000000000,  0.00000000000000 ]
  - # 5
    frequency:    9.9985545081
    eigenvector:
    - # atom 1
      - [  0.51654579697427,  0.00000000000000 ]
      - [  0.00523386096221,  0.00000000000000 ]
      - [ -0.00000000000000, -0.00000000000000 ]
    - # atom 2
      - [  0.51654579697427,  0.00000000000000 ]
      - [  0.00523386096221,  0.00000000000000 ]
      - [  0.00000000000000, -0.00000000000000 ]
    - # atom 3
      - [ -0.68283103604202, -0.00000000000000 ]
      - [ -0.00691873348745, -0.00000000000000 ]
      - [ -0.00000000000000,  0.00000000000000 ]
  - # 6
    frequency:   11.7648016242
    eigenvector:
    - # atom 1
      - [ -0.00000000000000,  0.00000000000000 ]
      - [  0.00000000000000, -0.00000000000000 ]
      - [  0.52812234735628, -0.00000000000000 ]
    - # atom 2
      - [ -0.00000000000000,  0.00000000000000 ]
      - [  0.00000000000000, -0.00000000000000 ]
      - [  0.52812234735628, -0.00000000000000 ]
    - # atom 3
      - [  0.00000000000000,  0.00000000000000 ]
      - [ -0.00000000000000,  0.00000000000000 ]
      - [ -0.66496133154176,  0.00000000000000 ]
  - # 7
    frequency:   16.4494729872
    eigenvector:
    - # atom 1
      - [  0.08275644753594,  0.00000000000000 ]
      - [ -0.70224737122415, -0.00000000000000 ]
      - [ -0.00000000000000,  0.00000000000000 ]
    - # atom 2
      - [ -0.08275644753594, -0.00000000000000 ]
      - [  0.70224737122415,  0.00000000000000 ]
      - [  0.00000000000000,  0.00000000000000 ]
    - # atom 3
      - [  0.00000000000000,  0.00000000000000 ]
      - [  0.00000000000000, -0.00000000000000 ]
      - [  0.00000000000000, -0.00000000000000 ]
  - # 8
    frequency:   16.4494729872
    eigenvector:
    - # atom 1
      - [  0.70224737122415, -0.00000000000000 ]
      - [  0.08275644753594,  0.00000000000000 ]
      - [  0.00000000000000, -0.00000000000000 ]
    - # atom 2
      - [ -0.70224737122415,  0.00000000000000 ]
      - [ -0.08275644753594, -0.00000000000000 ]
      - [  0.00000000000000, -0.00000000000000 ]
    - # atom 3
      - [  0.00000000000000,  0.00000000000000 ]
      - [ -0.00000000000000, -0.00000000000000 ]
      - [ -0.00000000000000,  0.00000000000000 ]
  - # 9
    frequency:   20.4867206080
    eigenvector:
    - # atom 1
      - [ -0.00000000000000,  0.00000000000000 ]
      - [  0.00000000000000, -0.00000000000000 ]
      - [ -0.70710678118655, -0.00000000000000 ]
    - # atom 2
      - [  0.00000000000000, -0.00000000000000 ]
      - [  0.00000000000000,  0.00000000000000 ]
      - [  0.70710678118655,  0.00000000000000 ]
    - # atom 3
      - [ -0.00000000000000, -0.00000000000000 ]
      - [ -0.00000000000000, -0.00000000000000 ]
      - [  0.00000000000000,  0.00000000000000 ]

- q-position: [    0.0500000,    0.0500000,    0.0500000 ]
  distance:    0.0353739
  band:
  - # 1
    frequency:    1.9766374198
    eigenvector:
    - # atom 1
      - [ -0.46923803961101,  0.00000000000000 ]
      - [ -0.09668885616147,  0.00000000000000 ]
      - [ -0.00000000000000,  0.00000000000000 ]
    - # atom 2
      - [ -0.46923803961101,  0.00000000000000 ]
      - [ -0.09668885616147,  0.00000000000000 ]
      - [ -0.00000000000000,  0.00000000000000 ]
    - # atom 3
      - [ -0.72034850276216,  0.00000000000000 ]
      - [ -0.14843142901936,  0.00000000000000 ]
      - [ -0.00000000000000,  0.00000000000000 ]
  - # 2
    frequency:    1.9766374198
    eigenvector:
    - # atom 1
      - [  0.09668885616147,  0.00000000000000 ]
      - [ -0.46923803961101,  0.00000000000000 ]
      - [  0.00000000000000,  0.00000000000000 ]
    - # atom 2
      - [  0.09668885616147,  0.00000000000000 ]
      - [ -0.46923803961101,  0.00000000000000 ]
      - [  0.00000000000000,  0.00000000000000 ]
    - # atom 3
      - [  0.14843142901936,  0.00000000000000 ]
      - [ -0.72034850276216,  0.00000000000000 ]
      - [  0.00000000000000,  0.00000000000000 ]
  - # 3
    frequency:    2.3569194221
    eigenvector:
    - # atom 1
      - [ -0.00000000000000,  0.00000000000000 ]
      - [  0.00000000000000,  0.00000000000000 ]
      - [  0.46566391794930,  0.00000000000000 ]
    - # atom 2
      - [ -0.00000000000000,  0.00000000000000 ]
      - [  0.00000000000000,  0.00000000000000 ]
      - [  0.46566391794930,  0.00000000000000 ]
    - # atom 3
      - [ -0.00000000000000,  0.00000000000000 ]
      - [  0.00000000000000,  0.00000000000000 ]
      - [  0.75253852462197,  0.00000000000000 ]
  - # 4
    frequency:    9.9935735934
    eigenvector:
    - # atom 1
      - [  0.51903486593644,  0.00000000000000 ]
      - [  0.03270680691453,  0.00000000000000 ]
      - [ -0.00000000000000,  0.00000000000000 ]
    - # atom 2
      - [  0.51903486593644,  0.00000000000000 ]
      - [  0.03270680691453,  0.00000000000000 ]
      - [ -0.00000000000000,  0.00000000000000 ]
    - # atom 3
      - [ -0.67620298243944,  0.00000000000000 ]
      - [ -0.04261070273530,  0.00000000000000 ]
      - [  0.00000000000000,  0.00000000000000 ]
  - # 5
    frequency:    9.9935735934
    eigenvector:
    - # atom 1
      - [  0.03270680691453,  0.00000000000000 ]
      - [ -0.51903486593644,  0.00000000000000 ]
      - [ -0.00000000000000,  0.00000000000000 ]
    - # atom 2
      - [  0.03270680691453,  0.00000000000000 ]
      - [ -0.51903486593644,  0.00000000000000 ]
      - [  0.00000000000000,  0.00000000000000 ]
    - # atom 3
      - [ -0.04261070273530,  0.00000000000000 ]
      - [  0.67620298243944,  0.00000000000000 ]
      - [ -0.00000000000000,  0.00000000000000 ]
  - # 6
    frequency:   11.7672446340
    eigenvector:
    - # atom 1
      - [ -0.00000000000000,  0.00000000000000 ]
      - [ -0.00000000000000,  0.00000000000000 ]
      - [ -0.53212509386431,  0.00000000000000 ]
    - # atom 2
      - [ -0.00000000000000,  0.00000000000000 ]
      - [ -0.00000000000000,  0.00000000000000 ]
      - [ -0.53212509386431,  0.00000000000000 ]
    - # atom 3
      - [  0.00000000000000,  0.00000000000000 ]
      - [  0.00000000000000,  0.00000000000000 ]
      - [  0.65854822827170,  0.00000000000000 ]
  - # 7
    frequency:   16.4102378945
    eigenvector:
    - # atom 1
      - [  0.22034345923224,  0.00000000000000 ]
      - [ -0.67189936744543,  0.00000000000000 ]
      - [  0.00000000000000,  0.00000000000000 ]
    - # atom 2
      - [ -0.22034345923224,  0.00000000000000 ]
      - [  0.67189936744543,  0.00000000000000 ]
      - [ -0.00000000000000,  0.00000000000000 ]
    - # atom 3
      - [  0.00000000000000,  0.00000000000000 ]
      - [ -0.00000000000000,  0.00000000000000 ]
      - [ -0.00000000000000,  0.00000000000000 ]
  - # 8
    frequency:   16.4102378945
    eigenvector:
    - # atom 1
      - [  0.67189936744543, -0.00000000000000 ]
      - [  0.22034345923224,  0.00000000000000 ]
      - [ -0.00000000000000,  0.00000000000000 ]
    - # atom 2
      - [ -0.67189936744543,  0.00000000000000 ]
      - [ -0.22034345923224,  0.00000000000000 ]
      - [  0.00000000000000,  0.00000000000000 ]
    - # atom 3