nqpoint: 51     
npath: 1      
segment_nqpoint:
- 51
reciprocal_lattice:
- [   0.32404067,   0.18708497,   0.00000000 ] # a*
- [   0.00000000,   0.37416993,   0.00000000 ] # b*
- [   0.00000000,   0.00000000,   0.28375405 ] # c*
natom: 3      
lattice:
- [     3.086032390600000,     0.000000000000000,     0.000000000000000 ] # a
- [    -1.543016195300000,     2.672582447200000,     0.000000000000000 ] # b
- [     0.000000000000000,     0.000000000000000,     3.524178743400000 ] # c
points:
- symbol: B  # 1
  coordinates: [  0.333333330000000,  0.666666670000000,  0.500000000000000 ]
  mass: 10.811000
- symbol: B  # 2
  coordinates: [  0.666666670000000,  0.333333330000000,  0.500000000000000 ]
  mass: 10.811000
- symbol: Mg # 3
  coordinates: [  0.000000000000000,  0.000000000000000,  0.000000000000000 ]
  mass: 24.305000

phonon:
- q-position: [    0.0000000,    0.0000000,    0.0000000 ]
  distance:    0.0000000
  band:
  - # 1
    frequency:   -0.1645847448
    eigenvector:
    - # atom 1
      - [ -0.00000000000024,  0.00000000000000 ]
      - [  0.00000000000069,  0.00000000000000 ]
      - [  0.47793147778065,  0.00000000000000 ]
    - # atom 2
      - [ -0.00000000000024,  0.00000000000000 ]
      - [  0.00000000000069,  0.00000000000000 ]
      - [  0.47793147778065,  0.00000000000000 ]
    - # atom 3
      - [ -0.00000000000035,  0.00000000000000 ]
      - [  0.00000000000102,  0.00000000000000 ]
      - [  0.73699593288756,  0.00000000000000 ]
  - # 2
    frequency:   -0.0798716197
    eigenvector:
    - # atom 1
      - [  0.05361942804181,  0.00000000000000 ]
      - [ -0.48631774374425,  0.00000000000000 ]
      - [  0.00000000000070,  0.00000000000000 ]
    - # atom 2
      - [  0.05361942804181,  0.00000000000000 ]
      - [ -0.48631774374425,  0.00000000000000 ]
      - [  0.00000000000070,  0.00000000000000 ]
    - # atom 3
      - [  0.07912197685847,  0.00000000000000 ]
      - [ -0.71762088242326,  0.00000000000000 ]
      - [  0.00000000000108,  0.00000000000000 ]
  - # 3
    frequency:   -0.0798716197
    eigenvector:
    - # atom 1
      - [  0.48631774374426,  0.00000000000000 ]
      - [  0.05361942804181,  0.00000000000000 ]
      - [  0.00000000000016,  0.00000000000000 ]
    - # atom 2
      - [  0.48631774374426,  0.00000000000000 ]
      - [  0.05361942804181,  0.00000000000000 ]
      - [  0.00000000000016,  0.00000000000000 ]
    - # atom 3
      - [  0.71762088242326,  0.00000000000000 ]
      - [  0.07912197685847,  0.00000000000000 ]
      - [  0.00000000000024,  0.00000000000000 ]
  - # 4
    frequency:   10.0092318762
    eigenvector:
    - # atom 1
      - [  0.50556120269967,  0.00000000000000 ]
      - [ -0.07090754107165,  0.00000000000000 ]
      - [  0.00000000000000,  0.00000000000000 ]
    - # atom 2
      - [  0.50556120269967,  0.00000000000000 ]
      - [ -0.07090754107165,  0.00000000000000 ]
      - [  0.00000000000000,  0.00000000000000 ]
    - # atom 3
      - [ -0.68521802930624,  0.00000000000000 ]
      - [  0.09610532868546,  0.00000000000000 ]
      - [ -0.00000000000000,  0.00000000000000 ]
  - # 5
    frequency:   10.0092318762
    eigenvector:
    - # atom 1
      - [  0.07090754107165,  0.00000000000000 ]
      - [  0.50556120269967,  0.00000000000000 ]
      - [ -0.00000000000000,  0.00000000000000 ]
    - # atom 2
      - [  0.07090754107165,  0.00000000000000 ]
      - [  0.50556120269967,  0.00000000000000 ]
      - [ -0.00000000000000,  0.00000000000000 ]
    - # atom 3
      - [ -0.09610532868546,  0.00000000000000 ]
      - [ -0.68521802930624,  0.00000000000000 ]
      - [  0.00000000000000,  0.00000000000000 ]
  - # 6
    frequency:   11.7630512306
    eigenvector:
    - # atom 1
      - [ -0.00000000000000,  0.00000000000000 ]
      - [ -0.00000000000000,  0.00000000000000 ]
      - [  0.52113482185170,  0.00000000000000 ]
    - # atom 2
      - [ -0.00000000000000,  0.00000000000000 ]
      - [  0.00000000000000,  0.00000000000000 ]
      - [  0.52113482185170,  0.00000000000000 ]
    - # atom 3
      - [  0.00000000000000,  0.00000000000000 ]
      - [ -0.00000000000000,  0.00000000000000 ]
      - [ -0.67589717776242,  0.00000000000000 ]
  - # 7
    frequency:   16.5195693991
    eigenvector:
    - # atom 1
      - [  0.11702277550395,  0.00000000000000 ]
      - [  0.69735620024013,  0.00000000000000 ]
      - [ -0.00000000000000,  0.00000000000000 ]
    - # atom 2
      - [ -0.11702277550395,  0.00000000000000 ]
      - [ -0.69735620024013,  0.00000000000000 ]
      - [  0.00000000000000,  0.00000000000000 ]
    - # atom 3
      - [ -0.00000000000000,  0.00000000000000 ]
      - [ -0.00000000000000,  0.00000000000000 ]
      - [ -0.00000000000000,  0.00000000000000 ]
  - # 8
    frequency:   16.5195693991
    eigenvector:
    - # atom 1
      - [  0.69735620024013, -0.00000000000000 ]
      - [ -0.11702277550395,  0.00000000000000 ]
      - [ -0.00000000000000,  0.00000000000000 ]
    - # atom 2
      - [ -0.69735620024013,  0.00000000000000 ]
      - [  0.11702277550395,  0.00000000000000 ]
      - [ -0.00000000000000,  0.00000000000000 ]
    - # atom 3
      - [  0.00000000000000,  0.00000000000000 ]
      - [  0.00000000000000,  0.00000000000000 ]
      - [  0.00000000000000,  0.00000000000000 ]
  - # 9
    frequency:   20.5755254502
    eigenvector:
    - # atom 1
      - [ -0.00000000000000,  0.00000000000000 ]
      - [ -0.00000000000000,  0.00000000000000 ]
      - [ -0.70710678118655,  0.00000000000000 ]
    - # atom 2
      - [  0.00000000000000,  0.00000000000000 ]
      - [  0.00000000000000,  0.00000000000000 ]
      - [  0.70710678118655,  0.00000000000000 ]
    - # atom 3
      - [ -0.00000000000000,  0.00000000000000 ]
      - [ -0.00000000000000,  0.00000000000000 ]
      - [  0.00000000000000,  0.00000000000000 ]
