nqpoint: 51     
npath: 1      
segment_nqpoint:
- 51
reciprocal_lattice:
- [   0.32404067,   0.18708497,   0.00000000 ] # a*
- [   0.00000000,   0.37416993,   0.00000000 ] # b*
- [   0.00000000,   0.00000000,   0.28375405 ] # c*
natom: 3      
lattice:
- [     3.086032390600000,     0.000000000000000,     0.000000000000000 ] # a
- [    -1.543016195300000,     2.672582447200000,     0.000000000000000 ] # b
- [     0.000000000000000,     0.000000000000000,     3.524178743400000 ] # c
points:
- symbol: B  # 1
  coordinates: [  0.333333330000000,  0.666666670000000,  0.500000000000000 ]
  mass: 10.811000
- symbol: B  # 2
  coordinates: [  0.666666670000000,  0.333333330000000,  0.500000000000000 ]
  mass: 10.811000
- symbol: Mg # 3
  coordinates: [  0.000000000000000,  0.000000000000000,  0.000000000000000 ]
  mass: 24.305000

phonon:
- q-position: [    0.0000000,    0.0000000,    0.0000000 ]
  distance:    0.0000000
  band:
  - # 1
    frequency:   -0.1670684525
    eigenvector:
    - # atom 1
      - [ -0.00000000000026,  0.00000000000000 ]
      - [ -0.00000000000056,  0.00000000000000 ]
      - [ -0.47782253861390,  0.00000000000000 ]
    - # atom 2
      - [ -0.00000000000026,  0.00000000000000 ]
      - [ -0.00000000000056,  0.00000000000000 ]
      - [ -0.47782253861390,  0.00000000000000 ]
    - # atom 3
      - [ -0.00000000000038,  0.00000000000000 ]
      - [ -0.00000000000082,  0.00000000000000 ]
      - [ -0.73713719427603,  0.00000000000000 ]
  - # 2
    frequency:   -0.0795679839
    eigenvector:
    - # atom 1
      - [ -0.01780330563753,  0.00000000000000 ]
      - [  0.48892491604357,  0.00000000000000 ]
      - [ -0.00000000000053,  0.00000000000000 ]
    - # atom 2
      - [ -0.01780330563753,  0.00000000000000 ]
      - [  0.48892491604357,  0.00000000000000 ]
      - [ -0.00000000000053,  0.00000000000000 ]
    - # atom 3
      - [ -0.02627256680660,  0.00000000000000 ]
      - [  0.72151277867667,  0.00000000000000 ]
      - [ -0.00000000000082,  0.00000000000000 ]
  - # 3
    frequency:   -0.0795679839
    eigenvector:
    - # atom 1
      - [ -0.48892491604357,  0.00000000000000 ]
      - [ -0.01780330563753,  0.00000000000000 ]
      - [  0.00000000000027,  0.00000000000000 ]
    - # atom 2
      - [ -0.48892491604357,  0.00000000000000 ]
      - [ -0.01780330563753,  0.00000000000000 ]
      - [  0.00000000000027,  0.00000000000000 ]
    - # atom 3
      - [ -0.72151277867667,  0.00000000000000 ]
      - [ -0.02627256680660,  0.00000000000000 ]
      - [  0.00000000000042,  0.00000000000000 ]
  - # 4
    frequency:   10.0100047945
    eigenvector:
    - # atom 1
      - [  0.01937694206335,  0.00000000000000 ]
      - [ -0.51015684146784,  0.00000000000000 ]
      - [ -0.00000000000000,  0.00000000000000 ]
    - # atom 2
      - [  0.01937694206335,  0.00000000000000 ]
      - [ -0.51015684146784,  0.00000000000000 ]
      - [ -0.00000000000000,  0.00000000000000 ]
    - # atom 3
      - [ -0.02626112815044,  0.00000000000000 ]
      - [  0.69140394530833,  0.00000000000000 ]
      - [  0.00000000000000,  0.00000000000000 ]
  - # 5
    frequency:   10.0100047945
    eigenvector:
    - # atom 1
      - [ -0.51015684146784,  0.00000000000000 ]
      - [ -0.01937694206335,  0.00000000000000 ]
      - [  0.00000000000000,  0.00000000000000 ]
    - # atom 2
      - [ -0.51015684146784,  0.00000000000000 ]
      - [ -0.01937694206335,  0.00000000000000 ]
      - [ -0.00000000000000,  0.00000000000000 ]
    - # atom 3
      - [  0.69140394530833,  0.00000000000000 ]
      - [  0.02626112815044,  0.00000000000000 ]
      - [ -0.00000000000000,  0.00000000000000 ]
  - # 6
    frequency:   11.7647751385
    eigenvector:
    - # atom 1
      - [ -0.00000000000000,  0.00000000000000 ]
      - [  0.00000000000000,  0.00000000000000 ]
      - [ -0.52123470873741,  0.00000000000000 ]
    - # atom 2
      - [ -0.00000000000000,  0.00000000000000 ]
      - [  0.00000000000000,  0.00000000000000 ]
      - [ -0.52123470873741,  0.00000000000000 ]
    - # atom 3
      - [  0.00000000000000,  0.00000000000000 ]
      - [ -0.00000000000000,  0.00000000000000 ]
      - [  0.67574311451531,  0.00000000000000 ]
  - # 7
    frequency:   20.5772165518
    eigenvector:
    - # atom 1
      - [ -0.00000000000000,  0.00000000000000 ]
      - [ -0.00000000000000,  0.00000000000000 ]
      - [  0.70710678118655,  0.00000000000000 ]
    - # atom 2
      - [  0.00000000000000,  0.00000000000000 ]
      - [  0.00000000000000,  0.00000000000000 ]
      - [ -0.70710678118655,  0.00000000000000 ]
    - # atom 3
      - [ -0.00000000000000,  0.00000000000000 ]
      - [  0.00000000000000,  0.00000000000000 ]
      - [ -0.00000000000000,  0.00000000000000 ]
  - # 8
    frequency:   22.7575981881
    eigenvector:
    - # atom 1
      - [  0.00000000000000,  0.00000000000000 ]
      - [ -0.70710678118655,  0.00000000000000 ]
      - [ -0.00000000000000,  0.00000000000000 ]
    - # atom 2
      - [ -0.00000000000000,  0.00000000000000 ]
      - [  0.70710678118655,  0.00000000000000 ]
      - [  0.00000000000000,  0.00000000000000 ]
    - # atom 3
      - [  0.00000000000000,  0.00000000000000 ]
      - [  0.00000000000000,  0.00000000000000 ]
      - [ -0.00000000000000,  0.00000000000000 ]
  - # 9
    frequency:   22.7575981881
    eigenvector:
    - # atom 1
      - [  0.70710678118655,  0.00000000000000 ]
      - [  0.00000000000000,  0.00000000000000 ]
      - [  0.00000000000000,  0.00000000000000 ]
    - # atom 2
      - [ -0.70710678118655,  0.00000000000000 ]
      - [ -0.00000000000000,  0.00000000000000 ]
      - [ -0.00000000000000,  0.00000000000000 ]
    - # atom 3
      - [  0.00000000000000,  0.00000000000000 ]
      - [  0.00000000000000,  0.00000000000000 ]
      - [ -0.00000000000000,  0.00000000000000 ]

- q-position: [    0.0100000,    0.0100000,    0.0100000 ]
  distance:    0.0070748
  band:
  - # 1
    frequency:    0.4480987770
    eigenvector:
    - # atom 1
      - [ -0.00000000000028,  0.00000000000000 ]
      - [  0.00000000000029,  0.00000000000000 ]
      - [ -0.47735126864291,  0.00000000000000 ]
    - # atom 2
      - [ -0.00000000000028,  0.00000000000000 ]
      - [  0.00000000000029,  0.00000000000000 ]
      - [ -0.47735126864291,  0.00000000000000 ]
    - # atom 3
      - [ -0.00000000000042,  0.00000000000000 ]
      - [  0.00000000000043,  0.00000000000000 ]
      - [ -0.73774760768844,  0.00000000000000 ]
  - # 2
    frequency:    0.4801017903
    eigenvector:
    - # atom 1
      - [  0.22076029221434, -0.00000000000000 ]
      - [ -0.43571340573450,  0.00000000000000 ]
      - [ -0.00000000000038,  0.00000000000000 ]
    - # atom 2
      - [  0.22076029221434,  0.00000000000000 ]
      - [ -0.43571340573450,  0.00000000000000 ]
      - [ -0.00000000000038,  0.00000000000000 ]
    - # atom 3
      - [  0.32680306454104,  0.00000000000000 ]
      - [ -0.64500945721434,  0.00000000000000 ]
      - [ -0.00000000000059,  0.00000000000000 ]
  - # 3
    frequency:    0.4801017903
    eigenvector:
    - # atom 1
      - [ -0.43571340573450,  0.00000000000000 ]
      - [ -0.22076029221434,  0.00000000000000 ]
      - [  0.00000000000012,  0.00000000000000 ]
    - # atom 2
      - [ -0.43571340573450,  0.00000000000000 ]
      - [ -0.22076029221434,  0.00000000000000 ]
      - [  0.00000000000012,  0.00000000000000 ]
    - # atom 3
      - [ -0.64500945721434,  0.00000000000000 ]
      - [ -0.32680306454104,  0.00000000000000 ]
      - [  0.00000000000018,  0.00000000000000 ]
  - # 4
    frequency:   10.0134744953
    eigenvector:
    - # atom 1
      - [  0.00791118710765,  0.00000000000000 ]
      - [  0.51123002118736,  0.00000000000000 ]
      - [  0.00000000000000,  0.00000000000000 ]
    - # atom 2
      - [  0.00791118710765,  0.00000000000000 ]
      - [  0.51123002118736,  0.00000000000000 ]
      - [  0.00000000000000,  0.00000000000000 ]
    - # atom 3
      - [ -0.01068824724824,  0.00000000000000 ]
      - [ -0.69068684545270,  0.00000000000000 ]
      - [ -0.00000000000000,  0.00000000000000 ]
  - # 5
    frequency:   10.0134744953
    eigenvector:
    - # atom 1
      - [  0.51123002118736,  0.00000000000000 ]
      - [ -0.00791118710765,  0.00000000000000 ]
      - [ -0.00000000000000,  0.00000000000000 ]
    - # atom 2
      - [  0.51123002118736,  0.00000000000000 ]
      - [ -0.00791118710765,  0.00000000000000 ]
      - [  0.00000000000000,  0.00000000000000 ]
    - # atom 3
      - [ -0.69068684545270,  0.00000000000000 ]
      - [  0.01068824724824,  0.00000000000000 ]
      - [  0.00000000000000,  0.00000000000000 ]
  - # 6
    frequency:   11.7647897658
    eigenvector:
    - # atom 1
      - [ -0.00000000000000,  0.00000000000000 ]
      - [  0.00000000000000,  0.00000000000000 ]
      - [ -0.52166633620065,  0.00000000000000 ]
    - # atom 2
      - [ -0.00000000000000,  0.00000000000000 ]
      - [  0.00000000000000,  0.00000000000000 ]
      - [ -0.52166633620065,  0.00000000000000 ]
    - # atom 3
      - [  0.00000000000000,  0.00000000000000 ]
      - [ -0.00000000000000,  0.00000000000000 ]
      - [  0.67507663813080,  0.00000000000000 ]
  - # 7
    frequency:   20.5716502125
    eigenvector:
    - # atom 1
      - [ -0.00000000000000,  0.00000000000000 ]
      - [  0.00000000000000,  0.00000000000000 ]
      - [  0.70710678118655,  0.00000000000000 ]
    - # atom 2
      - [  0.00000000000000,  0.00000000000000 ]
      - [  0.00000000000000,  0.00000000000000 ]
      - [ -0.70710678118655,  0.00000000000000 ]
    - # atom 3
      - [ -0.00000000000000,  0.00000000000000 ]
      - [  0.00000000000000,  0.00000000000000 ]
      - [  0.00000000000000,  0.00000000000000 ]
  - # 8
    frequency:   22.7508674783
    eigenvector:
    - # atom 1
      - [  0.00000000000000,  0.00000000000000 ]
      - [ -0.70710678118655,  0.00000000000000 ]
      - [ -0.00000000000000,  0.00000000000000 ]
    - # atom 2
      - [ -0.00000000000000,  0.00000000000000 ]
      - [  0.70710678118655,  0.00000000000000 ]
      - [  0.00000000000000,  0.00000000000000 ]
    - # atom 3
      - [ -0.00000000000000,  0.00000000000000 ]
      - [  0.00000000000000,  0.00000000000000 ]
      - [  0.00000000000000,  0.00000000000000 ]
  - # 9
    frequency:   22.7508674783
    eigenvector:
    - # atom 1
      - [  0.70710678118655,  0.00000000000000 ]
      - [  0.00000000000000,  0.00000000000000 ]
      - [  0.00000000000000,  0.00000000000000 ]
    - # atom 2
      - [ -0.70710678118655,  0.00000000000000 ]
      - [ -0.00000000000000,  0.00000000000000 ]
      - [ -0.00000000000000,  0.00000000000000 ]
    - # atom 3
      - [ -0.00000000000000,  0.00000000000000 ]
      - [  0.00000000000000,  0.00000000000000 ]
      - [ -0.00000000000000,  0.00000000000000 ]

- q-position: [    0.0200000,    0.0200000,    0.0200000 ]
  distance:    0.0141496
  band:
  - # 1
    frequency:    0.9403237505
    eigenvector:
    - # atom 1
      - [ -0.00000000000012,  0.00000000000000 ]
      - [  0.00000000000015, -0.00000000000000 ]
      - [ -0.47592776772924,  0.00000000000000 ]
    - # atom 2
      - [ -0.00000000000012,  0.00000000000000 ]
      - [  0.00000000000015, -0.00000000000000 ]
      - [ -0.47592776772924,  0.00000000000000 ]
    - # atom 3
      - [ -0.00000000000017,  0.00000000000000 ]
      - [  0.00000000000023, -0.00000000000000 ]
      - [ -0.73958469414160, -0.00000000000000 ]
  - # 2
    frequency:    0.9678683263
    eigenvector:
    - # atom 1
      - [ -0.13780015222926,  0.00000000000000 ]
      - [  0.46608032757547,  0.00000000000000 ]
      - [  0.00000000000018,  0.00000000000000 ]
    - # atom 2
      - [ -0.13780015222926, -0.00000000000000 ]
      - [  0.46608032757547,  0.00000000000000 ]
      - [  0.00000000000018,  0.00000000000000 ]
    - # atom 3
      - [ -0.20593384282012,  0.00000000000000 ]
      - [  0.69652835187579, -0.00000000000000 ]
      - [  0.00000000000027,  0.00000000000000 ]
  - # 3
    frequency:    0.9678683263
    eigenvector:
    - # atom 1
      - [  0.46608032757547,  0.00000000000000 ]
      - [  0.13780015222926,  0.00000000000000 ]
      - [ -0.00000000000007,  0.00000000000000 ]
    - # atom 2
      - [  0.46608032757547, -0.00000000000000 ]
      - [  0.13780015222926,  0.00000000000000 ]
      - [ -0.00000000000007,  0.00000000000000 ]
    - # atom 3
      - [  0.69652835187579, -0.00000000000000 ]
      - [  0.20593384282012, -0.00000000000000 ]
      - [ -0.00000000000010,  0.00000000000000 ]
  - # 4
    frequency:   10.0240263406
    eigenvector:
    - # atom 1
      - [ -0.14739025121737,  0.00000000000000 ]
      - [  0.49199223585217, -0.00000000000000 ]
      - [ -0.00000000000000, -0.00000000000000 ]
    - # atom 2
      - [ -0.14739025121737,  0.00000000000000 ]
      - [  0.49199223585217, -0.00000000000000 ]
      - [ -0.00000000000000, -0.00000000000000 ]
    - # atom 3
      - [  0.19725168798606, -0.00000000000000 ]
      - [ -0.65843092196614,  0.00000000000000 ]
      - [  0.00000000000000,  0.00000000000000 ]
  - # 5
    frequency:   10.0240263406
    eigenvector:
    - # atom 1
      - [ -0.49199223585217,  0.00000000000000 ]
      - [ -0.14739025121737,  0.00000000000000 ]
      - [  0.00000000000000,  0.00000000000000 ]
    - # atom 2
      - [ -0.49199223585217, -0.00000000000000 ]
      - [ -0.14739025121737,  0.00000000000000 ]
      - [ -0.00000000000000,  0.00000000000000 ]
    - # atom 3
      - [  0.65843092196614, -0.00000000000000 ]
      - [  0.19725168798606, -0.00000000000000 ]
      - [ -0.00000000000000, -0.00000000000000 ]
  - # 6
    frequency:   11.7649098471
    eigenvector:
    - # atom 1
      - [ -0.00000000000000,  0.00000000000000 ]
      - [ -0.00000000000000, -0.00000000000000 ]
      - [ -0.52296535248930, -0.00000000000000 ]
    - # atom 2
      - [ -0.00000000000000,  0.00000000000000 ]
      - [ -0.00000000000000, -0.00000000000000 ]
      - [ -0.52296535248930, -0.00000000000000 ]
    - # atom 3
      - [  0.00000000000000,  0.00000000000000 ]
      - [  0.00000000000000, -0.00000000000000 ]
      - [  0.67306350383265,  0.00000000000000 ]
  - # 7
    frequency:   20.5549641388
    eigenvector:
    - # atom 1
      - [  0.00000000000000,  0.00000000000000 ]
      - [ -0.00000000000000,  0.00000000000000 ]
      - [ -0.70710678118655, -0.00000000000000 ]
    - # atom 2
      - [ -0.00000000000000, -0.00000000000000 ]
      - [ -0.00000000000000, -0.00000000000000 ]
      - [  0.70710678118655,  0.00000000000000 ]
    - # atom 3
      - [  0.00000000000000, -0.00000000000000 ]
      - [  0.00000000000000, -0.00000000000000 ]
      - [  0.00000000000000,  0.00000000000000 ]
  - # 8
    frequency:   22.7306899816
    eigenvector:
    - # atom 1
      - [  0.13988615673571, -0.00000000000000 ]
      - [  0.69313192334051,  0.00000000000000 ]
      - [  0.00000000000000, -0.00000000000000 ]
    - # atom 2
      - [ -0.13988615673571, -0.00000000000000 ]
      - [ -0.69313192334051, -0.00000000000000 ]
      - [ -0.00000000000000,  0.00000000000000 ]
    - # atom 3
      - [  0.00000000000000,  0.00000000000000 ]
      - [  0.00000000000000, -0.00000000000000 ]
      - [ -0.00000000000000, -0.00000000000000 ]
  - # 9
    frequency:   22.7306899816
    eigenvector:
    - # atom 1
      - [ -0.69313192334051,  0.00000000000000 ]
      - [  0.13988615673571,  0.00000000000000 ]
      - [ -0.00000000000000, -0.00000000000000 ]
    - # atom 2
      - [  0.69313192334051, -0.00000000000000 ]
      - [ -0.13988615673571, -0.00000000000000 ]
      - [  0.00000000000000,  0.00000000000000 ]
    - # atom 3
      - [  0.00000000000000,  0.00000000000000 ]
      - [  0.00000000000000, -0.00000000000000 ]
      - [ -0.00000000000000, -0.00000000000000 ]

- q-position: [    0.0300000,    0.0300000,    0.0300000 ]
  distance:    0.0212244
  band:
  - # 1
    frequency:    1.4192313239
    eigenvector:
    - # atom 1
      - [ -0.00000000000003,  0.00000000000000 ]
      - [  0.00000000000017,  0.00000000000000 ]
      - [ -0.47352280410311,  0.00000000000000 ]
    - # atom 2
      - [ -0.00000000000003,  0.00000000000000 ]
      - [  0.00000000000017,  0.00000000000000 ]
      - [ -0.47352280410311,  0.00000000000000 ]
    - # atom 3
      - [ -0.00000000000004,  0.00000000000000 ]
      - [  0.00000000000026,  0.00000000000000 ]
      - [ -0.74266567713114,  0.00000000000000 ]
  - # 2
    frequency:    1.4490546862
    eigenvector:
    - # atom 1
      - [  0.33931408926969,  0.00000000000000 ]
      - [ -0.34221596671453, -0.00000000000000 ]
      - [ -0.00000000000014,  0.00000000000000 ]
    - # atom 2
      - [  0.33931408926969,  0.00000000000000 ]
      - [ -0.34221596671453, -0.00000000000000 ]
      - [ -0.00000000000014,  0.00000000000000 ]
    - # atom 3
      - [  0.51524177684118, -0.00000000000000 ]
      - [ -0.51964822071762,  0.00000000000000 ]
      - [ -0.00000000000022,  0.00000000000000 ]
  - # 3
    frequency:    1.4490546862
    eigenvector:
    - # atom 1
      - [  0.34221596671453,  0.00000000000000 ]
      - [  0.33931408926969,  0.00000000000000 ]
      - [  0.00000000000010, -0.00000000000000 ]
    - # atom 2
      - [  0.34221596671453, -0.00000000000000 ]
      - [  0.33931408926969,  0.00000000000000 ]
      - [  0.00000000000010, -0.00000000000000 ]
    - # atom 3
      - [  0.51964822071762, -0.00000000000000 ]
      - [  0.51524177684118, -0.00000000000000 ]
      - [  0.00000000000015, -0.00000000000000 ]
  - # 4
    frequency:   10.0420911973
    eigenvector:
    - # atom 1
      - [ -0.05708606010063,  0.00000000000000 ]
      - [  0.51429112639721, -0.00000000000000 ]
      - [ -0.00000000000000,  0.00000000000000 ]
    - # atom 2
      - [ -0.05708606010063,  0.00000000000000 ]
      - [  0.51429112639721, -0.00000000000000 ]
      - [ -0.00000000000000,  0.00000000000000 ]
    - # atom 3
      - [  0.07518840809763, -0.00000000000000 ]
      - [ -0.67737607087223,  0.00000000000000 ]
      - [  0.00000000000000,  0.00000000000000 ]
  - # 5
    frequency:   10.0420911973
    eigenvector:
    - # atom 1
      - [  0.51429112639721,  0.00000000000000 ]
      - [  0.05708606010063, -0.00000000000000 ]
      - [ -0.00000000000000, -0.00000000000000 ]
    - # atom 2
      - [  0.51429112639721,  0.00000000000000 ]
      - [  0.05708606010063, -0.00000000000000 ]
      - [  0.00000000000000, -0.00000000000000 ]
    - # atom 3
      - [ -0.67737607087223,  0.00000000000000 ]
      - [ -0.07518840809763,  0.00000000000000 ]
      - [ -0.00000000000000, -0.00000000000000 ]
  - # 6
    frequency:   11.7653653369
    eigenvector:
    - # atom 1
      - [ -0.00000000000000,  0.00000000000000 ]
      - [  0.00000000000000, -0.00000000000000 ]
      - [  0.52514393645393, -0.00000000000000 ]
    - # atom 2
      - [ -0.00000000000000, -0.00000000000000 ]
      - [  0.00000000000000, -0.00000000000000 ]
      - [  0.52514393645393, -0.00000000000000 ]
    - # atom 3
      - [  0.00000000000000, -0.00000000000000 ]
      - [ -0.00000000000000,  0.00000000000000 ]
      - [ -0.66966237165556,  0.00000000000000 ]
  - # 7
    frequency:   20.5271971821
    eigenvector:
    - # atom 1
      - [ -0.00000000000000,  0.00000000000000 ]
      - [  0.00000000000000, -0.00000000000000 ]
      - [  0.70710678118655,  0.00000000000000 ]
    - # atom 2
      - [  0.00000000000000,  0.00000000000000 ]
      - [ -0.00000000000000, -0.00000000000000 ]
      - [ -0.70710678118655, -0.00000000000000 ]
    - # atom 3
      - [ -0.00000000000000, -0.00000000000000 ]
      - [ -0.00000000000000,  0.00000000000000 ]
      - [  0.00000000000000,  0.00000000000000 ]
  - # 8
    frequency:   22.6971096203
    eigenvector:
    - # atom 1
      - [  0.70710678118655,  0.00000000000000 ]
      - [ -0.00000000000000,  0.00000000000000 ]
      - [  0.00000000000000,  0.00000000000000 ]
    - # atom 2
      - [ -0.70710678118655, -0.00000000000000 ]
      - [  0.00000000000000, -0.00000000000000 ]
      - [ -0.00000000000000, -0.00000000000000 ]
    - # atom 3
      - [  0.00000000000000,  0.00000000000000 ]
      - [  0.00000000000000,  0.00000000000000 ]
      - [ -0.00000000000000, -0.00000000000000 ]
  - # 9
    frequency:   22.6971096203
    eigenvector:
    - # atom 1
      - [  0.00000000000000,  0.00000000000000 ]
      - [  0.70710678118655, -0.00000000000000 ]
      - [ -0.00000000000000, -0.00000000000000 ]
    - # atom 2
      - [  0.00000000000000, -0.00000000000000 ]
      - [ -0.70710678118655,  0.00000000000000 ]
      - [ -0.00000000000000, -0.00000000000000 ]
    - # atom 3
      - [  0.00000000000000,  0.00000000000000 ]
      - [ -0.00000000000000,  0.00000000000000 ]
      - [  0.00000000000000, -0.00000000000000 ]

- q-position: [    0.0400000,    0.0400000,    0.0400000 ]
  distance:    0.0282991
  band:
  - # 1
    frequency:    1.8913465283
    eigenvector:
    - # atom 1
      - [ -0.00000000000002,  0.00000000000000 ]
      - [ -0.00000000000005, -0.00000000000000 ]
      - [ -0.47008716274383, -0.00000000000000 ]
    - # atom 2
      - [ -0.00000000000002, -0.00000000000000 ]
      - [ -0.00000000000005, -0.00000000000000 ]
      - [ -0.47008716274383, -0.00000000000000 ]
    - # atom 3
      - [ -0.00000000000003, -0.00000000000000 ]
      - [ -0.00000000000008, -0.00000000000000 ]
      - [ -0.74701815161809, -0.00000000000000 ]
  - # 2
    frequency:    1.9230212099
    eigenvector:
    - # atom 1
      - [ -0.02126840391647,  0.00000000000000 ]
      - [  0.47555694091821, -0.00000000000000 ]
      - [ -0.00000000000005,  0.00000000000000 ]
    - # atom 2
      - [ -0.02126840391647,  0.00000000000000 ]
      - [  0.47555694091821, -0.00000000000000 ]
      - [ -0.00000000000005,  0.00000000000000 ]
    - # atom 3
      - [ -0.03303751488768, -0.00000000000000 ]
      - [  0.73871173301144,  0.00000000000000 ]
      - [ -0.00000000000008,  0.00000000000000 ]
  - # 3
    frequency:    1.9230212099
    eigenvector:
    - # atom 1
      - [  0.47555694091821,  0.00000000000000 ]
      - [  0.02126840391647, -0.00000000000000 ]
      - [ -0.00000000000002, -0.00000000000000 ]
    - # atom 2
      - [  0.47555694091821,  0.00000000000000 ]
      - [  0.02126840391647, -0.00000000000000 ]
      - [ -0.00000000000002, -0.00000000000000 ]
    - # atom 3
      - [  0.73871173301144,  0.00000000000000 ]
      - [  0.03303751488768,  0.00000000000000 ]
      - [ -0.00000000000003, -0.00000000000000 ]
  - # 4
    frequency:   10.0683953049
    eigenvector:
    - # atom 1
      - [ -0.02115585847141,  0.00000000000000 ]
      - [  0.52244203562855,  0.00000000000000 ]
      - [ -0.00000000000000, -0.00000000000000 ]
    - # atom 2
      - [ -0.02115585847141, -0.00000000000000 ]
      - [  0.52244203562855,  0.00000000000000 ]
      - [ -0.00000000000000, -0.00000000000000 ]
    - # atom 3
      - [  0.02723881288889,  0.00000000000000 ]
      - [ -0.67266005173021, -0.00000000000000 ]
      - [  0.00000000000000,  0.00000000000000 ]
  - # 5
    frequency:   10.0683953049
    eigenvector:
    - # atom 1
      - [  0.52244203562855,  0.00000000000000 ]
      - [  0.02115585847141,  0.00000000000000 ]
      - [  0.00000000000000,  0.00000000000000 ]
    - # atom 2
      - [  0.52244203562855, -0.00000000000000 ]
      - [  0.02115585847141,  0.00000000000000 ]
      - [  0.00000000000000,  0.00000000000000 ]
    - # atom 3
      - [ -0.67266005173020, -0.00000000000000 ]
      - [ -0.02723881288889, -0.00000000000000 ]
      - [ -0.00000000000000,  0.00000000000000 ]
  - # 6
    frequency:   11.7665439666
    eigenvector:
    - # atom 1
      - [ -0.00000000000000,  0.00000000000000 ]
      - [  0.00000000000000,  0.00000000000000 ]
      - [  0.52822160067859,  0.00000000000000 ]
    - # atom 2
      - [ -0.00000000000000,  0.00000000000000 ]
      - [  0.00000000000000,  0.00000000000000 ]
      - [  0.52822160067859,  0.00000000000000 ]
    - # atom 3
      - [ -0.00000000000000,  0.00000000000000 ]
      - [ -0.00000000000000, -0.00000000000000 ]
      - [ -0.66480364104982, -0.00000000000000 ]
  - # 7
    frequency:   20.4884141554
    eigenvector:
    - # atom 1
      - [ -0.00000000000000,  0.00000000000000 ]
      - [  0.00000000000000, -0.00000000000000 ]
      - [  0.70710678118655, -0.00000000000000 ]
    - # atom 2
      - [  0.00000000000000, -0.00000000000000 ]
      - [ -0.00000000000000, -0.00000000000000 ]
      - [ -0.70710678118655,  0.00000000000000 ]
    - # atom 3
      - [ -0.00000000000000, -0.00000000000000 ]
      - [  0.00000000000000,  0.00000000000000 ]
      - [ -0.00000000000000, -0.00000000000000 ]
  - # 8
    frequency:   22.6501996817
    eigenvector:
    - # atom 1
      - [  0.00000000000000,  0.00000000000000 ]
      - [ -0.70710678118655,  0.00000000000000 ]
      - [  0.00000000000000, -0.00000000000000 ]
    - # atom 2
      - [ -0.00000000000000, -0.00000000000000 ]
      - [  0.70710678118655, -0.00000000000000 ]
      - [ -0.00000000000000, -0.00000000000000 ]
    - # atom 3
      - [ -0.00000000000000,  0.00000000000000 ]
      - [  0.00000000000000, -0.00000000000000 ]
      - [ -0.00000000000000, -0.00000000000000 ]
  - # 9
    frequency:   22.6501996817
    eigenvector:
    - # atom 1
      - [  0.70710678118655,  0.00000000000000 ]
      - [  0.00000000000000, -0.00000000000000 ]
      - [  0.00000000000000, -0.00000000000000 ]
    - # atom 2
      - [ -0.70710678118655,  0.00000000000000 ]
      - [ -0.00000000000000,  0.00000000000000 ]
      - [ -0.00000000000000,  0.00000000000000 ]
    - # atom 3
      - [  0.00000000000000,  0.00000000000000 ]
      - [  0.00000000000000, -0.00000000000000 ]
      - [ -0.00000000000000,  0.00000000000000 ]

- q-position: [    0.0500000,    0.0500000,    0.0500000 ]
  distance:    0.0353739
  band:
  - # 1
    frequency:    2.3566618515
    eigenvector:
    - # atom 1
      - [ -0.00000000000003,  0.00000000000000 ]
      - [ -0.00000000000005,  0.00000000000000 ]
      - [ -0.46555102974802,  0.00000000000000 ]
    - # atom 2
      - [ -0.00000000000003,  0.00000000000000 ]
      - [ -0.00000000000005,  0.00000000000000 ]
      - [ -0.46555102974802,  0.00000000000000 ]
    - # atom 3
      - [ -0.00000000000006,  0.00000000000000 ]
      - [ -0.00000000000009,  0.00000000000000 ]
      - [ -0.75267820308622,  0.00000000000000 ]
  - # 2
    frequency:    2.3876740401
    eigenvector:
    - # atom 1
      - [  0.46787998018253,  0.00000000000000 ]
      - [ -0.01807850339874,  0.00000000000000 ]
      - [ -0.00000000000003,  0.00000000000000 ]
    - # atom 2
      - [  0.46787998018253,  0.00000000000000 ]
      - [ -0.01807850339874,  0.00000000000000 ]
      - [ -0.00000000000003,  0.00000000000000 ]
    - # atom 3
      - [  0.74878961463210,  0.00000000000000 ]
      - [ -0.02893262410541,  0.00000000000000 ]
      - [ -0.00000000000005,  0.00000000000000 ]
  - # 3
    frequency:    2.3876740401
    eigenvector:
    - # atom 1
      - [  0.01807850339874,  0.00000000000000 ]
      - [  0.46787998018253,  0.00000000000000 ]
      - [ -0.00000000000006,  0.00000000000000 ]
    - # atom 2
      - [  0.01807850339874,  0.00000000000000 ]
      - [  0.46787998018253,  0.00000000000000 ]
      - [ -0.00000000000006,  0.00000000000000 ]
    - # atom 3
      - [  0.02893262410541,  0.00000000000000 ]
      - [  0.74878961463210,  0.00000000000000 ]
      - [ -0.00000000000009,  0.00000000000000 ]
  - # 4
    frequency:   10.1039699665
    eigenvector:
    - # atom 1
      - [ -0.52986931379984,  0.00000000000000 ]
      - [ -0.00004639550882,  0.00000000000000 ]
      - [ -0.00000000000000,  0.00000000000000 ]
    - # atom 2
      - [ -0.52986931379984,  0.00000000000000 ]
      - [ -0.00004639550882,  0.00000000000000 ]
      - [ -0.00000000000000,  0.00000000000000 ]
    - # atom 3
      - [  0.66217596824392,  0.00000000000000 ]
      - [  0.00005798031737,  0.00000000000000 ]
      - [ -0.00000000000000,  0.00000000000000 ]
  - # 5
    frequency:   10.1039699665
    eigenvector:
    - # atom 1
      - [ -0.00004639550882,  0.00000000000000 ]
      - [  0.52986931379984,  0.00000000000000 ]
      - [ -0.00000000000000,  0.00000000000000 ]
    - # atom 2
      - [ -0.00004639550882,  0.00000000000000 ]
      - [  0.52986931379984,  0.00000000000000 ]
      - [ -0.00000000000000,  0.00000000000000 ]
    - # atom 3
      - [  0.00005798031737,  0.00000000000000 ]
      - [ -0.66217596824392,  0.00000000000000 ]
      - [ -0.00000000000000,  0.00000000000000 ]
  - # 6
    frequency:   11.7689977578
    eigenvector:
    - # atom 1
      - [ -0.00000000000000,  0.00000000000000 ]
      - [  0.00000000000000,  0.00000000000000 ]
      - [ -0.53222386145357,  0.00000000000000 ]
    - # atom 2
      - [ -0.00000000000000,  0.00000000000000 ]
      - [  0.00000000000000,  0.00000000000000 ]
      - [ -0.53222386145357,  0.00000000000000 ]
    - # atom 3
      - [ -0.00000000000000,  0.00000000000000 ]
      - [ -0.00000000000000,  0.00000000000000 ]
      - [  0.65838858024642,  0.00000000000000 ]
  - # 7
    frequency:   20.4387059255
    eigenvector:
    - # atom 1
      - [ -0.00000000000000,  0.00000000000000 ]
      - [ -0.00000000000000,  0.00000000000000 ]
      - [  0.70710678118655,  0.00000000000000 ]
    - # atom 2
      - [  0.00000000000000,  0.00000000000000 ]
      - [  0.00000000000000,  0.00000000000000 ]
      - [ -0.70710678118655,  0.00000000000000 ]
    - # atom 3
      - [ -0.00000000000000,  0.00000000000000 ]
      - [  0.00000000000000,  0.00000000000000 ]
      - [  0.00000000000000,  0.00000000000000 ]
  - # 8
    frequency:   22.5900629439
    eigenvector:
    - # atom 1
      - [  0.70710678118655,  0.00000000000000 ]
      - [  0.00000000000000,  0.00000000000000 ]
      - [  0.00000000000000,  0.00000000000000 ]
    - # atom 2
      - [ -0.70710678118655,  0.00000000000000 ]
      - [ -0.00000000000000,  0.00000000000000 ]
      - [ -0.00000000000000,  0.00000000000000 ]
    - # atom 3