nqpoint: 51     
npath: 1      
segment_nqpoint:
- 51
reciprocal_lattice:
- [   0.32404067,   0.18708497,   0.00000000 ] # a*
- [   0.00000000,   0.37416993,   0.00000000 ] # b*
- [   0.00000000,   0.00000000,   0.28375405 ] # c*
natom: 3      
lattice:
- [     3.086032390600000,     0.000000000000000,     0.000000000000000 ] # a
- [    -1.543016195300000,     2.672582447200000,     0.000000000000000 ] # b
- [     0.000000000000000,     0.000000000000000,     3.524178743400000 ] # c
points:
- symbol: B  # 1
  coordinates: [  0.333333330000000,  0.666666670000000,  0.500000000000000 ]
  mass: 10.811000
- symbol: B  # 2
  coordinates: [  0.666666670000000,  0.333333330000000,  0.500000000000000 ]
  mass: 10.811000
- symbol: Mg # 3
  coordinates: [  0.000000000000000,  0.000000000000000,  0.000000000000000 ]
  mass: 24.305000

phonon:
- q-position: [    0.0000000,    0.0000000,    0.0000000 ]
  distance:    0.0000000
  band:
  - # 1
    frequency:   -0.1670684525
    eigenvector:
    - # atom 1
      - [ -0.00000000000026,  0.00000000000000 ]
      - [ -0.00000000000056,  0.00000000000000 ]
      - [ -0.47782253861390,  0.00000000000000 ]
    - # atom 2
      - [ -0.00000000000026,  0.00000000000000 ]
      - [ -0.00000000000056,  0.00000000000000 ]
      - [ -0.47782253861390,  0.00000000000000 ]
    - # atom 3
      - [ -0.00000000000038,  0.00000000000000 ]
      - [ -0.00000000000082,  0.00000000000000 ]
      - [ -0.73713719427603,  0.00000000000000 ]
  - # 2
    frequency:   -0.0795679839
    eigenvector:
    - # atom 1
      - [ -0.01780330563753,  0.00000000000000 ]
      - [  0.48892491604357,  0.00000000000000 ]
      - [ -0.00000000000053,  0.00000000000000 ]
    - # atom 2
      - [ -0.01780330563753,  0.00000000000000 ]
      - [  0.48892491604357,  0.00000000000000 ]
      - [ -0.00000000000053,  0.00000000000000 ]
    - # atom 3
      - [ -0.02627256680660,  0.00000000000000 ]
      - [  0.72151277867667,  0.00000000000000 ]
      - [ -0.00000000000082,  0.00000000000000 ]
  - # 3
    frequency:   -0.0795679839
    eigenvector:
    - # atom 1
      - [ -0.48892491604357,  0.00000000000000 ]
      - [ -0.01780330563753,  0.00000000000000 ]
      - [  0.00000000000027,  0.00000000000000 ]
    - # atom 2
      - [ -0.48892491604357,  0.00000000000000 ]
      - [ -0.01780330563753,  0.00000000000000 ]
      - [  0.00000000000027,  0.00000000000000 ]
    - # atom 3
      - [ -0.72151277867667,  0.00000000000000 ]
      - [ -0.02627256680660,  0.00000000000000 ]
      - [  0.00000000000042,  0.00000000000000 ]
  - # 4
    frequency:   10.0100047945
    eigenvector:
    - # atom 1
      - [  0.01937694206335,  0.00000000000000 ]
      - [ -0.51015684146784,  0.00000000000000 ]
      - [ -0.00000000000000,  0.00000000000000 ]
    - # atom 2
      - [  0.01937694206335,  0.00000000000000 ]
      - [ -0.51015684146784,  0.00000000000000 ]
      - [ -0.00000000000000,  0.00000000000000 ]
    - # atom 3
      - [ -0.02626112815044,  0.00000000000000 ]
      - [  0.69140394530833,  0.00000000000000 ]
      - [  0.00000000000000,  0.00000000000000 ]
  - # 5
    frequency:   10.0100047945
    eigenvector:
    - # atom 1
      - [ -0.51015684146784,  0.00000000000000 ]
      - [ -0.01937694206335,  0.00000000000000 ]
      - [  0.00000000000000,  0.00000000000000 ]
    - # atom 2
      - [ -0.51015684146784,  0.00000000000000 ]
      - [ -0.01937694206335,  0.00000000000000 ]
      - [ -0.00000000000000,  0.00000000000000 ]
    - # atom 3
      - [  0.69140394530833,  0.00000000000000 ]
      - [  0.02626112815044,  0.00000000000000 ]
      - [ -0.00000000000000,  0.00000000000000 ]
  - # 6
    frequency:   11.7647751385
    eigenvector:
    - # atom 1
      - [ -0.00000000000000,  0.00000000000000 ]
      - [  0.00000000000000,  0.00000000000000 ]
      - [ -0.52123470873741,  0.00000000000000 ]
    - # atom 2
      - [ -0.00000000000000,  0.00000000000000 ]
      - [  0.00000000000000,  0.00000000000000 ]
      - [ -0.52123470873741,  0.00000000000000 ]
    - # atom 3
      - [  0.00000000000000,  0.00000000000000 ]
      - [ -0.00000000000000,  0.00000000000000 ]
      - [  0.67574311451531,  0.00000000000000 ]
  - # 7
    frequency:   20.5772165518
    eigenvector:
    - # atom 1
      - [ -0.00000000000000,  0.00000000000000 ]
      - [ -0.00000000000000,  0.00000000000000 ]
      - [  0.70710678118655,  0.00000000000000 ]
    - # atom 2
      - [  0.00000000000000,  0.00000000000000 ]
      - [  0.00000000000000,  0.00000000000000 ]
      - [ -0.70710678118655,  0.00000000000000 ]
    - # atom 3
      - [ -0.00000000000000,  0.00000000000000 ]
      - [  0.00000000000000,  0.00000000000000 ]
      - [ -0.00000000000000,  0.00000000000000 ]
  - # 8
    frequency:   22.7575981881
    eigenvector:
    - # atom 1
      - [  0.00000000000000,  0.00000000000000 ]
      - [ -0.70710678118655,  0.00000000000000 ]
      - [ -0.00000000000000,  0.00000000000000 ]
    - # atom 2
      - [ -0.00000000000000,  0.00000000000000 ]
      - [  0.70710678118655,  0.00000000000000 ]
      - [  0.00000000000000,  0.00000000000000 ]
    - # atom 3
      - [  0.00000000000000,  0.00000000000000 ]
      - [  0.00000000000000,  0.00000000000000 ]
      - [ -0.00000000000000,  0.00000000000000 ]
  - # 9
    frequency:   22.7575981881
    eigenvector:
    - # atom 1
      - [  0.70710678118655,  0.00000000000000 ]
      - [  0.00000000000000,  0.00000000000000 ]
      - [  0.00000000000000,  0.00000000000000 ]
    - # atom 2
      - [ -0.70710678118655,  0.00000000000000 ]
      - [ -0.00000000000000,  0.00000000000000 ]
      - [ -0.00000000000000,  0.00000000000000 ]
    - # atom 3
      - [  0.00000000000000,  0.00000000000000 ]
      - [  0.00000000000000,  0.00000000000000 ]
      - [ -0.00000000000000,  0.00000000000000 ]
